% Model:              open_rectangle.mph
% Version:            COMSOL 5.6.0.401
% Date:               Mar 3 2024, 16:32
% Dimension:          2
% Nodes:              400
% Expressions:        1
% Description:        Electric potential
% Length unit:        m
% x                       y                        V (V)
0.0025000000000000005     0.005000000000000001     29.3583851818113
0.0075000000000000015     0.005000000000000001     62.16759141897033
0.012500000000000002      0.005000000000000001     75.11335152586258
0.0175                    0.005000000000000001     81.3355213785756
0.022500000000000006      0.005000000000000001     84.83256284546181
0.027500000000000007      0.005000000000000001     86.9794898013394
0.03250000000000001       0.005000000000000001     88.35510580954377
0.037500000000000006      0.005000000000000001     89.23531437947399
0.04250000000000001       0.005000000000000001     89.76273970536262
0.04750000000000001       0.005000000000000001     90.01064791634163
0.05250000000000001       0.005000000000000001     90.01064790830594
0.05750000000000001       0.005000000000000001     89.76273967930328
0.06250000000000001       0.005000000000000001     89.23531432982779
0.06750000000000002       0.005000000000000001     88.3551057294439
0.07250000000000001       0.005000000000000001     86.97948962742264
0.07750000000000001       0.005000000000000001     84.83256069421036
0.08250000000000002       0.005000000000000001     81.33550132587291
0.08750000000000002       0.005000000000000001     75.1125445463812
0.09250000000000003       0.005000000000000001     62.17042279308884
0.09750000000000002       0.005000000000000001     29.37701544629747
0.0025000000000000005     0.015000000000000003     10.127120219057726
0.0075000000000000015     0.015000000000000003     28.361958312881175
0.012500000000000002      0.015000000000000003     42.28213980156428
0.0175                    0.015000000000000003     52.11615799642965
0.022500000000000006      0.015000000000000003     58.92174023794879
0.027500000000000007      0.015000000000000003     63.62538376790564
0.03250000000000001       0.015000000000000003     66.85754567089423
0.037500000000000006      0.015000000000000003     69.01620989391942
0.04250000000000001       0.015000000000000003     70.34291400853101
0.04750000000000001       0.015000000000000003     70.97515673997381
0.05250000000000001       0.015000000000000003     70.97515672368007
0.05750000000000001       0.015000000000000003     70.34291395439276
0.06250000000000001       0.015000000000000003     69.01620975557428
0.06750000000000002       0.015000000000000003     66.85754517067824
0.07250000000000001       0.015000000000000003     63.62537887911807
0.07750000000000001       0.015000000000000003     58.921679322955676
0.08250000000000002       0.015000000000000003     52.11621711103937
0.08750000000000002       0.015000000000000003     42.28253355469348
0.09250000000000003       0.015000000000000003     28.362135368860304
0.09750000000000002       0.015000000000000003     10.127226857507992
0.0025000000000000005     0.025000000000000005     5.733649572662079
0.0075000000000000015     0.025000000000000005     16.71406944785905
0.012500000000000002      0.025000000000000005     26.417193955771804
0.0175                    0.025000000000000005     34.47433091113049
0.022500000000000006      0.025000000000000005     40.87058821092666
0.027500000000000007      0.025000000000000005     45.77597158923741
0.03250000000000001       0.025000000000000005     49.4077951191686
0.037500000000000006      0.025000000000000005     51.960826808843684
0.04250000000000001       0.025000000000000005     53.582802053136085
0.04750000000000001       0.025000000000000005     54.37021860072897
0.05250000000000001       0.025000000000000005     54.37021859011485
0.05750000000000001       0.025000000000000005     53.58280209763245
0.06250000000000001       0.025000000000000005     51.96082538840292
0.06750000000000002       0.025000000000000005     49.407776972037695
0.07250000000000001       0.025000000000000005     45.77596236260841
0.07750000000000001       0.025000000000000005     40.87074550335166
0.08250000000000002       0.025000000000000005     34.47439545953138
0.08750000000000002       0.025000000000000005     26.417204427435472
0.09250000000000003       0.025000000000000005     16.71407216967913
0.09750000000000002       0.025000000000000005     5.733650550607514
0.0025000000000000005     0.035                    3.7371851968064274
0.0075000000000000015     0.035                    11.022036144884257
0.012500000000000002      0.035                    17.773841014708065
0.0175                    0.035                    23.75167781836239
0.022500000000000006      0.035                    28.82680048430184
0.027500000000000007      0.035                    32.964436170222136
0.03250000000000001       0.035                    36.18697523328284
0.037500000000000006      0.035                    38.54191561604443
0.04250000000000001       0.035                    40.079164935377264
0.04750000000000001       0.035                    40.83736049185812
0.05250000000000001       0.035                    40.837361252123635
0.05750000000000001       0.035                    40.07915303195257
0.06250000000000001       0.035                    38.541932188627456
0.06750000000000002       0.035                    36.18700368375016
0.07250000000000001       0.035                    32.96445731677681
0.07750000000000001       0.035                    28.82680520108716
0.08250000000000002       0.035                    23.751679705461868
0.08750000000000002       0.035                    17.773841421339903
0.09250000000000003       0.035                    11.022036491244995
0.09750000000000002       0.035                    3.7371853405196123
0.0025000000000000005     0.04500000000000001      2.581230577592641
0.0075000000000000015     0.04500000000000001      7.647942219332568
0.012500000000000002      0.04500000000000001      12.436874424134414
0.0175                    0.04500000000000001      16.79923365572087
0.022500000000000006      0.04500000000000001      20.62605973809388
0.027500000000000007      0.04500000000000001      23.84997778846443
0.03250000000000001       0.04500000000000001      26.436296982856515
0.037500000000000006      0.04500000000000001      28.372881739193062
0.04250000000000001       0.04500000000000001      29.65984577045635
0.04750000000000001       0.04500000000000001      30.301559944264994
0.05250000000000001       0.04500000000000001      30.30156649813265
0.05750000000000001       0.04500000000000001      29.65984705567375
0.06250000000000001       0.04500000000000001      28.372895955051145
0.06750000000000002       0.04500000000000001      26.436297980883058
0.07250000000000001       0.04500000000000001      23.84997901052394
0.07750000000000001       0.04500000000000001      20.62605988375591
0.08250000000000002       0.04500000000000001      16.799233795429394
0.08750000000000002       0.04500000000000001      12.4368745637947
0.09250000000000003       0.04500000000000001      7.647942325867201
0.09750000000000002       0.04500000000000001      2.5812306177961544
0.0025000000000000005     0.055000000000000014     1.8322174005999092
0.0075000000000000015     0.055000000000000014     5.44012084218622
0.012500000000000002      0.055000000000000014     8.881432858997451
0.0175                    0.055000000000000014     12.059402601333897
0.022500000000000006      0.055000000000000014     14.893514366504697
0.027500000000000007      0.055000000000000014     17.32280644734494
0.03250000000000001       0.055000000000000014     19.303844959505685
0.037500000000000006      0.055000000000000014     20.80818520056804
0.04250000000000001       0.055000000000000014     21.81865781333154
0.04750000000000001       0.055000000000000014     22.325887597572315
0.05250000000000001       0.055000000000000014     22.325885695895003
0.05750000000000001       0.055000000000000014     21.81865836864351
0.06250000000000001       0.055000000000000014     20.808186109497946
0.06750000000000002       0.055000000000000014     19.303844996044717
0.07250000000000001       0.055000000000000014     17.322806496145304
0.07750000000000001       0.055000000000000014     14.893514426940355
0.08250000000000002       0.055000000000000014     12.059402665356707
0.08750000000000002       0.055000000000000014     8.881432916970722
0.09250000000000003       0.055000000000000014     5.440120883050808
0.09750000000000002       0.055000000000000014     1.832217415375374
0.0025000000000000005     0.06500000000000002      1.3185234650090432
0.0075000000000000015     0.06500000000000002      3.918940704399769
0.012500000000000002      0.06500000000000002      6.410515205579141
0.0175                    0.06500000000000002      8.727351065704381
0.022500000000000006      0.06500000000000002      10.81111474401833
0.027500000000000007      0.06500000000000002      12.613655286876325
0.03250000000000001       0.06500000000000002      14.096709124321135
0.037500000000000006      0.06500000000000002      15.231706381631875
0.04250000000000001       0.06500000000000002      15.99872187991545
0.04750000000000001       0.06500000000000002      16.3852096840335
0.05250000000000001       0.06500000000000002      16.385210000864745
0.05750000000000001       0.06500000000000002      15.998721777239698
0.06250000000000001       0.06500000000000002      15.231706422610221
0.06750000000000002       0.06500000000000002      14.096709147539302
0.07250000000000001       0.06500000000000002      12.613655315698487
0.07750000000000001       0.06500000000000002      10.811114775640599
0.08250000000000002       0.06500000000000002      8.72735109678208
0.08750000000000002       0.06500000000000002      6.410515232079785
0.09250000000000003       0.06500000000000002      3.918940722315581
0.09750000000000002       0.06500000000000002      1.3185234713483107
0.0025000000000000005     0.07500000000000001      0.9556597337708548
0.0075000000000000015     0.07500000000000001      2.8419319601891533
0.012500000000000002      0.07500000000000001      4.653446067485526
0.0175                    0.07500000000000001      6.343937955179864
0.022500000000000006      0.07500000000000001      7.871136925258265
0.027500000000000007      0.07500000000000001      9.198652816328263
0.03250000000000001       0.07500000000000001      10.296106544322793
0.037500000000000006      0.07500000000000001      11.139571582799707
0.04250000000000001       0.07500000000000001      11.71147678641183
0.04750000000000001       0.07500000000000001      12.000259283163155
0.05250000000000001       0.07500000000000001      12.000259625393703
0.05750000000000001       0.07500000000000001      11.711476583986984
0.06250000000000001       0.07500000000000001      11.139571599755275
0.06750000000000002       0.07500000000000001      10.296106557504176
0.07250000000000001       0.07500000000000001      9.198652831896085
0.07750000000000001       0.07500000000000001      7.871136941750874
0.08250000000000002       0.07500000000000001      6.343937970817246
0.08750000000000002       0.07500000000000001      4.653446080406124
0.09250000000000003       0.07500000000000001      2.841931968726448
0.09750000000000002       0.07500000000000001      0.9556597367559144
0.0025000000000000005     0.08500000000000002      0.6953385379579802
0.0075000000000000015     0.08500000000000002      2.0683611782994347
0.012500000000000002      0.08500000000000002      3.388564935186324
0.0175                    0.08500000000000002      4.622879231465133
0.022500000000000006      0.08500000000000002      5.740583588913097
0.027500000000000007      0.08500000000000002      6.714656674409708
0.03250000000000001       0.08500000000000002      7.521982968751449
0.037500000000000006      0.08500000000000002      8.143887485963939
0.04250000000000001       0.08500000000000002      8.566328136116468
0.04750000000000001       0.08500000000000002      8.779884165362288
0.05250000000000001       0.08500000000000002      8.779884070796696
0.05750000000000001       0.08500000000000002      8.566328051733832
0.06250000000000001       0.08500000000000002      8.143887499029068
0.06750000000000002       0.08500000000000002      7.521982976602858
0.07250000000000001       0.08500000000000002      6.7146566830568855
0.07750000000000001       0.08500000000000002      5.740583597711653
0.08250000000000002       0.08500000000000002      4.622879239580982
0.08750000000000002       0.08500000000000002      3.388564941758765
0.09250000000000003       0.08500000000000002      2.068361182583204
0.09750000000000002       0.08500000000000002      0.6953385394454206
0.0025000000000000005     0.09500000000000001      0.5070707785167312
0.0075000000000000015     0.09500000000000001      1.5085570505445443
0.012500000000000002      0.09500000000000001      2.4721325386260653
0.0175                    0.09500000000000001      3.373912732506108
0.022500000000000006      0.09500000000000001      4.191515370606064
0.027500000000000007      0.09500000000000001      4.9050310364517316
0.03250000000000001       0.09500000000000001      5.497212734259311
0.037500000000000006      0.09500000000000001      5.953946075879646
0.04250000000000001       0.09500000000000001      6.2644930183916845
0.04750000000000001       0.09500000000000001      6.421580828492245
0.05250000000000001       0.09500000000000001      6.421580731985891
0.05750000000000001       0.09500000000000001      6.26449297314618
0.06250000000000001       0.09500000000000001      5.95394611370824
0.06750000000000002       0.09500000000000001      5.497212738351709
0.07250000000000001       0.09500000000000001      4.905031041088648
0.07750000000000001       0.09500000000000001      4.191515375294267
0.08250000000000002       0.09500000000000001      3.373912736780269
0.08750000000000002       0.09500000000000001      2.472132542050744
0.09250000000000003       0.09500000000000001      1.5085570527595735
0.09750000000000002       0.09500000000000001      0.5070707792828008
0.0025000000000000005     0.10500000000000002      0.3703679321363905
0.0075000000000000015     0.10500000000000002      1.1019451167453824
0.012500000000000002      0.10500000000000002      1.8060673441905086
0.0175                    0.10500000000000002      2.46537999496287
0.022500000000000006      0.10500000000000002      3.063544221141177
0.027500000000000007      0.10500000000000002      3.5859399616877212
0.03250000000000001       0.10500000000000002      4.0198185992289694
0.037500000000000006      0.10500000000000002      4.354677072722307
0.04250000000000001       0.10500000000000002      4.582476317133194
0.04750000000000001       0.10500000000000002      4.697745075520512
0.05250000000000001       0.10500000000000002      4.697745038091338
0.05750000000000001       0.10500000000000002      4.582476275535373
0.06250000000000001       0.10500000000000002      4.35467709269785
0.06750000000000002       0.10500000000000002      4.019818601408599
0.07250000000000001       0.10500000000000002      3.5859399641539595
0.07750000000000001       0.10500000000000002      3.063544223628907
0.08250000000000002       0.10500000000000002      2.465379997222164
0.08750000000000002       0.10500000000000002      1.806067345993074
0.09250000000000003       0.10500000000000002      1.1019451179072253
0.09750000000000002       0.10500000000000002      0.37036793253745437
0.0025000000000000005     0.11500000000000002      0.2709498375114288
0.0075000000000000015     0.11500000000000002      0.8061822961879379
0.012500000000000002      0.11500000000000002      1.3214211477825228
0.0175                    0.11500000000000002      1.8040057978968742
0.022500000000000006      0.11500000000000002      2.24198715686466
0.027500000000000007      0.11500000000000002      2.624639476302228
0.03250000000000001       0.11500000000000002      2.942577367300355
0.037500000000000006      0.11500000000000002      3.188041337975104
0.04250000000000001       0.11500000000000002      3.355073410944061
0.04750000000000001       0.11500000000000002      3.4396083512597757
0.05250000000000001       0.11500000000000002      3.4396083377742857
0.05750000000000001       0.11500000000000002      3.3550733665421344
0.06250000000000001       0.11500000000000002      3.1880413488803745
0.06750000000000002       0.11500000000000002      2.942577368481029
0.07250000000000001       0.11500000000000002      2.624639477618347
0.07750000000000001       0.11500000000000002      2.24198715818736
0.08250000000000002       0.11500000000000002      1.8040057990940914
0.08750000000000002       0.11500000000000002      1.3214211487349543
0.09250000000000003       0.11500000000000002      0.8061822968005534
0.09750000000000002       0.11500000000000002      0.27094983772267445
0.0025000000000000005     0.12500000000000003      0.19866099879451615
0.0075000000000000015     0.12500000000000003      0.5911074607279521
0.012500000000000002      0.12500000000000003      0.9689303437824623
0.0175                    0.12500000000000003      1.3228607807733022
0.022500000000000006      0.12500000000000003      1.6441392614221622
0.027500000000000007      0.12500000000000003      1.9248899136881865
0.03250000000000001       0.12500000000000003      2.1582083486849597
0.037500000000000006      0.12500000000000003      2.338375622310121
0.04250000000000001       0.12500000000000003      2.4609931888692373
0.04750000000000001       0.12500000000000003      2.523055865462836
0.05250000000000001       0.12500000000000003      2.5230558391684097
0.05750000000000001       0.12500000000000003      2.460993164155703
0.06250000000000001       0.12500000000000003      2.3383756312509822
0.06750000000000002       0.12500000000000003      2.158208349372321
0.07250000000000001       0.12500000000000003      1.9248899144127491
0.07750000000000001       0.12500000000000003      1.6441392621286808
0.08250000000000002       0.12500000000000003      1.3228607814043356
0.08750000000000002       0.12500000000000003      0.9689303442818431
0.09250000000000003       0.12500000000000003      0.5911074610485835
0.09750000000000002       0.12500000000000003      0.1986609989050282
0.0025000000000000005     0.13500000000000004      0.1462059732952037
0.0075000000000000015     0.13500000000000004      0.43503478695945924
0.012500000000000002      0.13500000000000004      0.7131153082464063
0.0175                    0.13500000000000004      0.9736315118664438
0.022500000000000006      0.13500000000000004      1.210137409438143
0.027500000000000007      0.13500000000000004      1.41683210568617
0.03250000000000001       0.13500000000000004      1.5886252434028856
0.037500000000000006      0.13500000000000004      1.7212962792831459
0.04250000000000001       0.13500000000000004      1.8115962119482911
0.04750000000000001       0.13500000000000004      1.857303666976398
0.05250000000000001       0.13500000000000004      1.857303639012047
0.05750000000000001       0.13500000000000004      1.8115961859390346
0.06250000000000001       0.13500000000000004      1.7212962798881926
0.06750000000000002       0.13500000000000004      1.58862524374959
0.07250000000000001       0.13500000000000004      1.4168321060271793
0.07750000000000001       0.13500000000000004      1.2101374097715905
0.08250000000000002       0.13500000000000004      0.9736315121697422
0.08750000000000002       0.13500000000000004      0.7131153084929426
0.09250000000000003       0.13500000000000004      0.4350347871213217
0.09750000000000002       0.13500000000000004      0.14620597335164964
0.0025000000000000005     0.14500000000000002      0.10832527107288556
0.0075000000000000015     0.14500000000000002      0.3223230341905901
0.012500000000000002      0.14500000000000002      0.5283628374155336
0.0175                    0.14500000000000002      0.7213967880341454
0.022500000000000006      0.14500000000000002      0.896649251081757
0.027500000000000007      0.14500000000000002      1.0498204820742898
0.03250000000000001       0.14500000000000002      1.177135426802221
0.037500000000000006      0.14500000000000002      1.2754625056567583
0.04250000000000001       0.14500000000000002      1.3423896519171907
0.04750000000000001       0.14500000000000002      1.3762674466359257
0.05250000000000001       0.14500000000000002      1.3762673409567572
0.05750000000000001       0.14500000000000002      1.3423896389935572
0.06250000000000001       0.14500000000000002      1.2754624493112772
0.06750000000000002       0.14500000000000002      1.177135426832598
0.07250000000000001       0.14500000000000002      1.049820481786146
0.07750000000000001       0.14500000000000002      0.8966492510924642
0.08250000000000002       0.14500000000000002      0.7213967881226641
0.08750000000000002       0.14500000000000002      0.5283628375389243
0.09250000000000003       0.14500000000000002      0.3223230342864663
0.09750000000000002       0.14500000000000002      0.10832527110786906
0.0025000000000000005     0.15500000000000003      0.0812339218843861
0.0075000000000000015     0.15500000000000003      0.2417132239417062
0.012500000000000002      0.15500000000000003      0.39622700712755365
0.0175                    0.15500000000000003      0.5409906829609048
0.022500000000000006      0.15500000000000003      0.6724230701627512
0.027500000000000007      0.15500000000000003      0.7872990490631284
0.03250000000000001       0.15500000000000003      0.882786185070276
0.037500000000000006      0.15500000000000003      0.9565341723447914
0.04250000000000001       0.15500000000000003      1.0067308066831209
0.04750000000000001       0.15500000000000003      1.0321449075755564
0.05250000000000001       0.15500000000000003      1.032144909496264
0.05750000000000001       0.15500000000000003      1.0067325550408417
0.06250000000000001       0.15500000000000003      0.9565341835754524
0.06750000000000002       0.15500000000000003      0.8827862669195925
0.07250000000000001       0.15500000000000003      0.787299042183475
0.07750000000000001       0.15500000000000003      0.6724230693457911
0.08250000000000002       0.15500000000000003      0.5409906827369683
0.08750000000000002       0.15500000000000003      0.3962270074083645
0.09250000000000003       0.15500000000000003      0.24171322407726129
0.09750000000000002       0.15500000000000003      0.0812339219196737
0.0025000000000000005     0.16500000000000004      0.06223003808559651
0.0075000000000000015     0.16500000000000004      0.18516709661320804
0.012500000000000002      0.16500000000000004      0.30353511321312876
0.0175                    0.16500000000000004      0.4144351964498191
0.022500000000000006      0.16500000000000004      0.5151240726039331
0.027500000000000007      0.16500000000000004      0.6031307763910959
0.03250000000000001       0.16500000000000004      0.6762835631758856
0.037500000000000006      0.16500000000000004      0.7327859564078667
0.04250000000000001       0.16500000000000004      0.7712439220671141
0.04750000000000001       0.16500000000000004      0.7907124862434775
0.05250000000000001       0.16500000000000004      0.7907125927991286
0.05750000000000001       0.16500000000000004      0.7712433047871268
0.06250000000000001       0.16500000000000004      0.7327866216665648
0.06750000000000002       0.16500000000000004      0.6762848490092926
0.07250000000000001       0.16500000000000004      0.6031307148755986
0.07750000000000001       0.16500000000000004      0.5151240809923773
0.08250000000000002       0.16500000000000004      0.4144352123116847
0.08750000000000002       0.16500000000000004      0.3035351118230569
0.09250000000000003       0.16500000000000004      0.18516709640800783
0.09750000000000002       0.16500000000000004      0.06223003799708907
0.0025000000000000005     0.17500000000000004      0.04942019165350246
0.0075000000000000015     0.17500000000000004      0.14705120209813966
0.012500000000000002      0.17500000000000004      0.24105406755065278
0.0175                    0.17500000000000004      0.3291267721618672
0.022500000000000006      0.17500000000000004      0.4090902982415576
0.027500000000000007      0.17500000000000004      0.4789829481304501
0.03250000000000001       0.17500000000000004      0.5370809145818846
0.037500000000000006      0.17500000000000004      0.5819529052864568
0.04250000000000001       0.17500000000000004      0.6124961632530475
0.04750000000000001       0.17500000000000004      0.6279579362591677
0.05250000000000001       0.17500000000000004      0.6279579372314812
0.05750000000000001       0.17500000000000004      0.6124961406761135
0.06250000000000001       0.17500000000000004      0.5819529149916481
0.06750000000000002       0.17500000000000004      0.5370805580374906
0.07250000000000001       0.17500000000000004      0.4789833038864711
0.07750000000000001       0.17500000000000004      0.40909131556244155
0.08250000000000002       0.17500000000000004      0.3291266962254501
0.08750000000000002       0.17500000000000004      0.24105407502564058
0.09250000000000003       0.17500000000000004      0.14705119786939802
0.09750000000000002       0.17500000000000004      0.0494201915261194
0.0025000000000000005     0.18500000000000005      0.04152876173729595
0.0075000000000000015     0.18500000000000005      0.12356999977824092
0.012500000000000002      0.18500000000000005      0.2025628887258369
0.0175                    0.18500000000000005      0.2765714978487611
0.022500000000000006      0.18500000000000005      0.3437690304083555
0.027500000000000007      0.18500000000000005      0.4025009761394024
0.03250000000000001       0.18500000000000005      0.4513223692410221
0.037500000000000006      0.18500000000000005      0.4890302801527975
0.04250000000000001       0.18500000000000005      0.5146970295822549
0.04750000000000001       0.18500000000000005      0.5276902286444279
0.05250000000000001       0.18500000000000005      0.5276902284192041
0.05750000000000001       0.18500000000000005      0.5146970289142773
0.06250000000000001       0.18500000000000005      0.4890302793873472
0.06750000000000002       0.18500000000000005      0.45132235345432037
0.07250000000000001       0.18500000000000005      0.4025009687249274
0.07750000000000001       0.18500000000000005      0.34376890599111365
0.08250000000000002       0.18500000000000005      0.2765715029058911
0.08750000000000002       0.18500000000000005      0.20256331242975983
0.09250000000000003       0.18500000000000005      0.12356987548935455
0.09750000000000002       0.18500000000000005      0.04152875890098545
0.0025000000000000005     0.19500000000000003      0.03777063771786972
0.0075000000000000015     0.19500000000000003      0.11238553194770397
0.012500000000000002      0.19500000000000003      0.18423074419262672
0.0175                    0.19500000000000003      0.25154082876423195
0.022500000000000006      0.19500000000000003      0.3126557904660437
0.027500000000000007      0.19500000000000003      0.36607323717345586
0.03250000000000001       0.19500000000000003      0.4104756269466387
0.037500000000000006      0.19500000000000003      0.4447715897428929
0.04250000000000001       0.19500000000000003      0.46811521864160305
0.04750000000000001       0.19500000000000003      0.4799327693194856
0.05250000000000001       0.19500000000000003      0.479932769239808
0.05750000000000001       0.19500000000000003      0.46811521844048243
0.06250000000000001       0.19500000000000003      0.4447715895358652
0.06750000000000002       0.19500000000000003      0.4104756269477856
0.07250000000000001       0.19500000000000003      0.3660732377669369
0.07750000000000001       0.19500000000000003      0.31265578332748817
0.08250000000000002       0.19500000000000003      0.25154085566558165
0.08750000000000002       0.19500000000000003      0.18423056781996938
0.09250000000000003       0.19500000000000003      0.11238574510526571
0.09750000000000002       0.19500000000000003      0.03777002275983744
